
 Version 4.0.4  of ABINIT 
 (sequential version, prepared for a P6/Linux computer) 

 Copyright (C) 1998-2003 ABINIT group . 
 ABINIT comes with ABSOLUTELY NO WARRANTY.
 It is free software, and you are welcome to redistribute it
 under certain conditions (GNU General Public License,
 see ~ABINIT/Infos/copyright or http://www.gnu.org/copyleft/gpl.txt).

 ABINIT is a project of the Universite Catholique de Louvain,
 Corning Inc. and other collaborators, see ~ABINIT/Infos/contributors.
 Please read ~ABINIT/Infos/acknowledgments.htm for suggested
 acknowledgments of the ABINIT effort.
 For more information, see http://www.abinit.org .

 Starting date : Tue  7 Oct 2003.
  
- input  file    -> LaScO3_rt.in
- output file    -> LaScO3_rt434k_fhi.out
- root for input  files -> LaScO3_434ki_fhi
- root for output files -> LaScO3_434ko_fhi


 Symmetries : space group Pn m a (# 62); Bravais oP (primitive ortho.)
================================================================================
 Values of the parameters that define the memory need of the present run
   intxc =         0  ionmov =         2    iscf =         5     ixc =         7
  lmnmax =         3   lnmax =         3   mband =        51  mffmem =         1
   mgfft =        90   mkmem =         8 mpssoang=         3     mpw =     21794
  mqgrid =      1201   natom =        20    nfft =    368640    nkpt =         8
  nloalg =         4  nspden =         1 nspinor =         1  nsppol =         1
    nsym =         8  n1xccc =         0   ntype =         3  occopt =         1
================================================================================
 This job should need less than                     221.272 Mbytes of memory.
 Rough estimation (10% accuracy) of disk space for files :
 WF disk file :    135.682 Mbytes ; DEN or POT disk file :      2.815 Mbytes.
================================================================================

 -outvars: echo values of preprocessed input variables --------
     acell    1.0940001693E+01  1.5318118863E+01  1.0750651149E+01 Bohr
       amu    4.49559100E+01  1.59994000E+01  1.38905500E+02
    diemac    1.20000000E+01
      ecut    4.00000000E+01 Hartree
    ionmov         2
       ixc         7
       kpt    1.25000000E-01  1.66666667E-01  1.25000000E-01
              3.75000000E-01  1.66666667E-01  1.25000000E-01
              1.25000000E-01  5.00000000E-01  1.25000000E-01
              3.75000000E-01  5.00000000E-01  1.25000000E-01
              1.25000000E-01  1.66666667E-01  3.75000000E-01
              3.75000000E-01  1.66666667E-01  3.75000000E-01
              1.25000000E-01  5.00000000E-01  3.75000000E-01
              3.75000000E-01  5.00000000E-01  3.75000000E-01
   kptrlen    4.30026046E+01
    kptopt         1
  kptrlatt    4  0  0   0  3  0   0  0  4
     mkmem         8
     natom        20
     nband        51
     ngfft        64      90      64
      nkpt         8
     nstep       100
      nsym         8
     ntime       200
     ntype         3
       occ    2.000000  2.000000  2.000000  2.000000  2.000000  2.000000
              2.000000  2.000000  2.000000  2.000000  2.000000  2.000000
              2.000000  2.000000  2.000000  2.000000  2.000000  2.000000
              2.000000  2.000000  2.000000  2.000000  2.000000  2.000000
              2.000000  2.000000  2.000000  2.000000  2.000000  2.000000
              2.000000  2.000000  2.000000  2.000000  2.000000  2.000000
              2.000000  2.000000  2.000000  2.000000  2.000000  2.000000
              2.000000  2.000000  2.000000  2.000000  2.000000  2.000000
              0.000000  0.000000  0.000000
    shiftk    5.00000000E-01  5.00000000E-01  5.00000000E-01
    symrel    1  0  0   0  1  0   0  0  1      -1  0  0   0 -1  0   0  0 -1
             -1  0  0   0  1  0   0  0 -1       1  0  0   0 -1  0   0  0  1
             -1  0  0   0 -1  0   0  0  1       1  0  0   0  1  0   0  0 -1
              1  0  0   0 -1  0   0  0 -1      -1  0  0   0  1  0   0  0  1
     tnons    0.0000000  0.0000000  0.0000000     0.0000000  0.0000000  0.0000000
              0.0000000  0.5000000  0.0000000     0.0000000  0.5000000  0.0000000
              0.5000000  0.0000000  0.5000000     0.5000000  0.0000000  0.5000000
              0.5000000  0.5000000  0.5000000     0.5000000  0.5000000  0.5000000
    toldff    5.00000000E-05
    tolmxf    5.00000000E-04
      type    1  1  1  1  3  3  3  3  2  2  2  2  2  2  2  2  2  2  2  2
       wtk      0.16667    0.16667    0.08333    0.08333    0.16667    0.16667
                0.08333    0.08333
    xangst    0.0000000000E+00  0.0000000000E+00  2.8444997812E+00
              2.8945997774E+00  4.0529996883E+00  0.0000000000E+00
              0.0000000000E+00  4.0529996883E+00  2.8444997812E+00
              2.8945997774E+00  0.0000000000E+00  0.0000000000E+00
             -2.4083070148E-01  2.0264998441E+00 -5.8027795537E-02
              2.6537690759E+00  2.0264998441E+00  2.9025275768E+00
              2.4083070148E-01  6.0794995324E+00  5.8027795537E-02
              3.1354304788E+00  6.0794995324E+00  2.7864719857E+00
              3.0566973649E+00  2.0264998441E+00  5.4045495843E-01
              5.9512971423E+00  2.0264998441E+00  2.3040448228E+00
             -3.0566973649E+00  6.0794995324E+00 -5.4045495843E-01
             -1.6209758753E-01  6.0794995324E+00  3.3849547397E+00
              1.1885226686E+00  3.8503497039E-01  4.5068254534E+00
              4.0831224460E+00  3.6679647179E+00 -1.6623256721E+00
             -1.1885226686E+00  4.4380346587E+00 -4.5068254534E+00
              1.7060771088E+00 -3.8503497039E-01  7.3513252346E+00
             -1.1885226686E+00 -3.8503497039E-01 -4.5068254534E+00
              1.7060771088E+00  4.4380346587E+00  7.3513252346E+00
              1.1885226686E+00  3.6679647179E+00  4.5068254534E+00
              4.0831224460E+00  3.8503497039E-01 -1.6623256721E+00
     xcart    0.0000000000E+00  0.0000000000E+00  5.3753255745E+00
              5.4700008465E+00  7.6590594317E+00  0.0000000000E+00
              0.0000000000E+00  7.6590594317E+00  5.3753255745E+00
              5.4700008465E+00  0.0000000000E+00  0.0000000000E+00
             -4.5510407043E-01  3.8295297159E+00 -1.0965664172E-01
              5.0148967761E+00  3.8295297159E+00  5.4849822162E+00
              4.5510407043E-01  1.1488589148E+01  1.0965664172E-01
              5.9251049170E+00  1.1488589148E+01  5.2656689328E+00
              5.7763208939E+00  3.8295297159E+00  1.0213118592E+00
              1.1246321740E+01  3.8295297159E+00  4.3540137154E+00
             -5.7763208939E+00  1.1488589148E+01 -1.0213118592E+00
             -3.0632004741E-01  1.1488589148E+01  6.3966374337E+00
              2.2459823476E+00  7.2761064601E-01  8.5166658403E+00
              7.7159831941E+00  6.9314487857E+00 -3.1413402657E+00
             -2.2459823476E+00  8.3866700777E+00 -8.5166658403E+00
              3.2240184990E+00 -7.2761064601E-01  1.3891991415E+01
             -2.2459823476E+00 -7.2761064601E-01 -8.5166658403E+00
              3.2240184990E+00  8.3866700777E+00  1.3891991415E+01
              2.2459823476E+00  6.9314487857E+00  8.5166658403E+00
              7.7159831941E+00  7.2761064601E-01 -3.1413402657E+00
      xred    0.0000000000E+00  0.0000000000E+00  5.0000000000E-01
              5.0000000000E-01  5.0000000000E-01  0.0000000000E+00
              0.0000000000E+00  5.0000000000E-01  5.0000000000E-01
              5.0000000000E-01  0.0000000000E+00  0.0000000000E+00
             -4.1600000000E-02  2.5000000000E-01 -1.0200000000E-02
              4.5840000000E-01  2.5000000000E-01  5.1020000000E-01
              4.1600000000E-02  7.5000000000E-01  1.0200000000E-02
              5.4160000000E-01  7.5000000000E-01  4.8980000000E-01
              5.2800000000E-01  2.5000000000E-01  9.5000000000E-02
              1.0280000000E+00  2.5000000000E-01  4.0500000000E-01
             -5.2800000000E-01  7.5000000000E-01 -9.5000000000E-02
             -2.8000000000E-02  7.5000000000E-01  5.9500000000E-01
              2.0530000000E-01  4.7500000000E-02  7.9220000000E-01
              7.0530000000E-01  4.5250000000E-01 -2.9220000000E-01
             -2.0530000000E-01  5.4750000000E-01 -7.9220000000E-01
              2.9470000000E-01 -4.7500000000E-02  1.2922000000E+00
             -2.0530000000E-01 -4.7500000000E-02 -7.9220000000E-01
              2.9470000000E-01  5.4750000000E-01  1.2922000000E+00
              2.0530000000E-01  4.5250000000E-01  7.9220000000E-01
              7.0530000000E-01  4.7500000000E-02 -2.9220000000E-01
     znucl     21.00000    8.00000   57.00000

================================================================================

 chkinp: Checking input parameters for consistency.

================================================================================
== DATASET  1 ==================================================================

 Real(R)+Recip(G) space primitive vectors, cartesian coordinates (Bohr,Bohr^-1):
 R(1)= 10.9400017  0.0000000  0.0000000  G(1)=  0.0914077  0.0000000  0.0000000
 R(2)=  0.0000000 15.3181189  0.0000000  G(2)=  0.0000000  0.0652822  0.0000000
 R(3)=  0.0000000  0.0000000 10.7506511  G(3)=  0.0000000  0.0000000  0.0930176
 Unit cell volume ucvol=  1.8015968E+03 bohr^3
 Angles (23,13,12)=  9.00000000E+01  9.00000000E+01  9.00000000E+01 degrees

 getcut: wavevector=  0.0000  0.0000  0.0000  ngfft=  64  90  64
         ecut(hartree)=     40.000   => boxcut(ratio)=   2.05479
--- Pseudopotential description ------------------------------------------------
- pspini: atom type   1  psp file is ../Psps_for_tests/21sc.031007.fhi
- pspatm: opening atomic psp file    ../Psps_for_tests/21sc.031007.fhi
 Sc fhi98 TM LDA l=0 local
  21.00000   3.00000     31007                znucl, zion, pspdat
    6    7    2    0       513   0.00000      pspcod,pspxc,lmax,lloc,mmax,r2well
    0.00000000000000    0.00000000000000    0.00000000000000   rchrg,fchrg,qchrg
  1.024700          amesh (Hamman grid)
 pspatm: epsatm=   56.85442780
         --- l  ekb(1:nproj) -->
             1    0.449975
             2   -5.155949
 pspatm: atomic psp has been read  and splines computed

- pspini: atom type   2  psp file is ../Psps_for_tests/08o.030829.fhi
- pspatm: opening atomic psp file    ../Psps_for_tests/08o.030829.fhi
 Oxigen, fhi98PP  : Trullier Mtrins Type, LDA PREDEW WANG 92 , l=2 local
   8.00000   6.00000     30829                znucl, zion, pspdat
    6    7    2    2       473   0.00000      pspcod,pspxc,lmax,lloc,mmax,r2well
    0.00000000000000    0.00000000000000    0.00000000000000   rchrg,fchrg,qchrg
  1.024700          amesh (Hamman grid)
 pspatm: epsatm=    3.67996594
         --- l  ekb(1:nproj) -->
             0    2.914750
             1   -2.952330
 pspatm: atomic psp has been read  and splines computed

- pspini: atom type   3  psp file is ../Psps_for_tests/57la.030829.fhi
- pspatm: opening atomic psp file    ../Psps_for_tests/57la.030829.fhi
 La, fhi98PP  : Trullier Mtrins Type, LDA PREDEW WANG 92 , l=0 local
  57.00000   3.00000     30829                znucl, zion, pspdat
    6    7    2    0       553   0.00000      pspcod,pspxc,lmax,lloc,mmax,r2well
    0.00000000000000    0.00000000000000    0.00000000000000   rchrg,fchrg,qchrg
  1.024700          amesh (Hamman grid)
 pspatm: epsatm=  109.65984293
         --- l  ekb(1:nproj) -->
             1    2.406491
             2   -2.348323
 pspatm: atomic psp has been read  and splines computed

   6.81808007E+04                                ecore*ucvol(ha*bohr**3)
--------------------------------------------------------------------------------

 newkpt: treating     51 bands with npw=   21779 for ikpt=   1
 newkpt: treating     51 bands with npw=   21777 for ikpt=   2
 newkpt: treating     51 bands with npw=   21780 for ikpt=   3
 newkpt: treating     51 bands with npw=   21758 for ikpt=   4
 newkpt: treating     51 bands with npw=   21772 for ikpt=   5
 newkpt: treating     51 bands with npw=   21745 for ikpt=   6
 newkpt: treating     51 bands with npw=   21794 for ikpt=   7
 newkpt: treating     51 bands with npw=   21766 for ikpt=   8
 
 setup2: Arith. and geom. avg. npw (full set) are   21770.333   21770.329

================================================================================

 BROYDEN STEP NUMBER   0  ------------------------------------------------------

     iter   Etot(hartree)      deltaE(h)  residm     vres2    diffor    maxfor
 ETOT  1  -202.56980713867    -2.026E+02 1.937E-01 3.130E+03 1.207E-01 1.207E-01
 ETOT  2  -203.28111342929    -7.113E-01 5.165E-02 1.095E+04 1.293E-01 9.900E-02
 ETOT  3  -205.95146861145    -2.670E+00 3.867E-02 3.264E+03 6.288E-02 9.954E-02
 ETOT  4  -206.45914364463    -5.077E-01 1.670E-02 2.360E+03 1.919E-02 1.187E-01
 ETOT  5  -206.52463904679    -6.550E-02 2.245E-02 2.364E+03 1.299E-02 1.317E-01
 ETOT  6  -206.71516740119    -1.905E-01 4.222E-03 6.100E+02 6.602E-02 6.570E-02
 ETOT  7  -206.79045366938    -7.529E-02 1.340E-02 8.361E+02 3.048E-02 9.618E-02
 ETOT  8  -206.84557405247    -5.512E-02 1.581E-03 2.156E+02 5.481E-02 4.137E-02
 ETOT  9  -206.86130409491    -1.573E-02 6.195E-03 1.020E+01 3.504E-02 1.705E-02
 ETOT 10  -206.86279933313    -1.495E-03 9.895E-04 1.082E+01 8.706E-03 1.499E-02
 ETOT 11  -206.86549492253    -2.696E-03 1.516E-03 2.053E+00 1.987E-03 1.492E-02
 ETOT 12  -206.86546604342     2.888E-05 4.395E-04 3.921E+00 2.932E-03 1.368E-02
 ETOT 13  -206.86581102641    -3.450E-04 3.026E-04 1.247E+00 2.243E-03 1.419E-02
 ETOT 14  -206.86583629350    -2.527E-05 2.352E-04 8.324E-01 8.619E-04 1.505E-02
 ETOT 15  -206.86589605070    -5.976E-05 1.767E-04 4.292E-01 7.053E-04 1.559E-02
 ETOT 16  -206.86591897115    -2.292E-05 1.282E-04 1.483E-01 8.812E-04 1.645E-02
 ETOT 17  -206.86592533735    -6.366E-06 9.296E-05 5.731E-02 4.040E-04 1.604E-02
 ETOT 18  -206.86592861458    -3.277E-06 6.514E-05 4.009E-03 4.218E-04 1.562E-02
 ETOT 19  -206.86592886991    -2.553E-07 5.143E-05 5.176E-04 1.550E-04 1.547E-02
 ETOT 20  -206.86592894647    -7.656E-08 3.905E-05 1.176E-04 3.407E-05 1.544E-02
 ETOT 21  -206.86592896082    -1.436E-08 3.009E-05 3.162E-05 1.895E-05 1.542E-02

 At SCF step   21, forces are converged :
  for the second time, max diff in force=  1.895E-05 < toldff=  5.000E-05

 Cartesian components of stress tensor (hartree/bohr^3)
  sigma(1 1)=  2.70983305E-04  sigma(3 2)=  0.00000000E+00
  sigma(2 2)=  3.00933400E-04  sigma(3 1)=  0.00000000E+00
  sigma(3 3)=  2.16079831E-04  sigma(2 1)=  0.00000000E+00
 
 Cartesian coordinates (bohr)
  0.00000000000000E+00  0.00000000000000E+00  5.37532557451300E+00
  5.47000084654100E+00  7.65905943171000E+00  0.00000000000000E+00
  0.00000000000000E+00  7.65905943171000E+00  5.37532557451300E+00
  5.47000084654100E+00  0.00000000000000E+00  0.00000000000000E+00
 -4.55104070432000E-01  3.82952971585500E+00 -1.09656641720000E-01
  5.01489677610800E+00  3.82952971585500E+00  5.48498221623300E+00
  4.55104070432000E-01  1.14885891475660E+01  1.09656641720000E-01
  5.92510491697300E+00  1.14885891475660E+01  5.26566893279300E+00
  5.77632089394700E+00  3.82952971585500E+00  1.02131185915700E+00
  1.12463217404870E+01  3.82952971585500E+00  4.35401371535500E+00
 -5.77632089394700E+00  1.14885891475660E+01 -1.02131185915700E+00
 -3.06320047406000E-01  1.14885891475660E+01  6.39663743367000E+00
  2.24598234759000E+00  7.27610646012000E-01  8.51666584025800E+00
  7.71598319413000E+00  6.93144878569800E+00 -3.14134026574500E+00
 -2.24598234759000E+00  8.38667007772300E+00 -8.51666584025800E+00
  3.22401849895100E+00 -7.27610646012000E-01  1.38919914147710E+01
 -2.24598234759000E+00 -7.27610646012000E-01 -8.51666584025800E+00
  3.22401849895100E+00  8.38667007772300E+00  1.38919914147710E+01
  2.24598234759000E+00  6.93144878569800E+00  8.51666584025800E+00
  7.71598319413000E+00  7.27610646012000E-01 -3.14134026574500E+00
 Cartesian forces (hart/bohr); max,rms= 1.54232E-02 6.16258E-03 (free atoms)
  0.00000000000000E+00  0.00000000000000E+00  0.00000000000000E+00
  0.00000000000000E+00  0.00000000000000E+00  0.00000000000000E+00
  0.00000000000000E+00  0.00000000000000E+00  0.00000000000000E+00
  0.00000000000000E+00  0.00000000000000E+00  0.00000000000000E+00
 -1.34441653395155E-02  0.00000000000000E+00 -5.72214007204319E-03
 -1.34441653395155E-02  0.00000000000000E+00  5.72214007204319E-03
  1.34441653395155E-02  0.00000000000000E+00  5.72214007204319E-03
  1.34441653395155E-02  0.00000000000000E+00 -5.72214007204319E-03
  1.88589319764174E-03  0.00000000000000E+00 -1.54232495872200E-02
  1.88589319764174E-03  0.00000000000000E+00  1.54232495872200E-02
 -1.88589319764174E-03  0.00000000000000E+00  1.54232495872200E-02
 -1.88589319764174E-03  0.00000000000000E+00 -1.54232495872200E-02
  6.44884219450569E-03 -2.70968508973405E-03 -2.90511176482867E-03
  6.44884219450569E-03  2.70968508973405E-03  2.90511176482867E-03
 -6.44884219450569E-03 -2.70968508973405E-03  2.90511176482867E-03
 -6.44884219450569E-03  2.70968508973405E-03 -2.90511176482867E-03
 -6.44884219450569E-03  2.70968508973405E-03  2.90511176482867E-03
 -6.44884219450569E-03 -2.70968508973405E-03 -2.90511176482867E-03
  6.44884219450569E-03  2.70968508973405E-03 -2.90511176482867E-03
  6.44884219450569E-03 -2.70968508973405E-03  2.90511176482867E-03
 
 At the end of Broyden step  0, total energy= -2.06865928960824E+02 Ha.


 BROYDEN STEP NUMBER   1  ------------------------------------------------------

     iter   Etot(hartree)      deltaE(h)  residm     vres2    diffor    maxfor
 ETOT  1  -206.86364903629    -2.069E+02 1.407E-04 3.064E+01 9.120E-02 1.066E-01
 ETOT  2  -206.86722501841    -3.576E-03 6.464E-05 6.972E+00 5.199E-02 5.463E-02
 ETOT  3  -206.86766131633    -4.363E-04 3.488E-05 2.457E+00 2.952E-02 2.512E-02
 ETOT  4  -206.86795331620    -2.920E-04 4.592E-05 6.929E-01 5.915E-03 1.920E-02
 ETOT  5  -206.86799003077    -3.671E-05 2.544E-05 3.289E-01 6.858E-03 1.234E-02
 ETOT  6  -206.86801623830    -2.621E-05 3.571E-05 1.284E-01 2.091E-03 1.444E-02
 ETOT  7  -206.86802560766    -9.369E-06 1.943E-05 7.643E-03 1.298E-03 1.314E-02
 ETOT  8  -206.86802576946    -1.618E-07 2.890E-05 6.715E-03 1.285E-04 1.323E-02
 ETOT  9  -206.86802626081    -4.914E-07 1.506E-05 2.310E-03 2.975E-04 1.293E-02
 ETOT 10  -206.86802637199    -1.112E-07 2.411E-05 5.408E-04 5.733E-05 1.288E-02
 ETOT 11  -206.86802638051    -8.521E-09 1.224E-05 4.664E-04 4.984E-05 1.293E-02
 ETOT 12  -206.86802638812    -7.602E-09 2.041E-05 3.792E-04 1.880E-05 1.291E-02

 At SCF step   12, forces are converged :
  for the second time, max diff in force=  1.880E-05 < toldff=  5.000E-05

 Cartesian components of stress tensor (hartree/bohr^3)
  sigma(1 1)=  2.66504371E-04  sigma(3 2)=  0.00000000E+00
  sigma(2 2)=  3.05235012E-04  sigma(3 1)=  0.00000000E+00
  sigma(3 3)=  2.35717777E-04  sigma(2 1)=  0.00000000E+00
 
 Cartesian coordinates (bohr)
 -4.50003437545815E-12  4.99991930729093E-12  5.37532557450650E+00
  5.47000084654550E+00  7.65905943170500E+00  6.50013888908218E-12
 -4.50003437545815E-12  7.65905943170500E+00  5.37532557450650E+00
  5.47000084654550E+00  4.99991930729093E-12  6.50013888908218E-12
 -4.68548235776265E-01  3.82952971585500E+00 -1.15378781785543E-01
  5.00145261077373E+00  3.82952971585500E+00  5.49070435629854E+00
  4.68548235767265E-01  1.14885891475550E+01  1.15378781798543E-01
  5.93854908231727E+00  1.14885891475550E+01  5.25994679271446E+00
  5.77820678713989E+00  3.82952971585500E+00  1.00588860957653E+00
  1.12482076336899E+01  3.82952971585500E+00  4.36943696493647E+00
 -5.77820678714889E+00  1.14885891475550E+01 -1.00588860956353E+00
 -3.08205940598892E-01  1.14885891475550E+01  6.38121418407653E+00
  2.25243118977976E+00  7.24900960927516E-01  8.51376072849967E+00
  7.72243203632976E+00  6.93415847078249E+00 -3.13843515398667E+00
 -2.25243118978876E+00  8.38396039262752E+00 -8.51376072848667E+00
  3.21756965676124E+00 -7.24900960917516E-01  1.38890863029997E+01
 -2.25243118978876E+00 -7.24900960917516E-01 -8.51376072848667E+00
  3.21756965676124E+00  8.38396039262752E+00  1.38890863029997E+01
  2.25243118977976E+00  6.93415847078249E+00  8.51376072849967E+00
  7.72243203632976E+00  7.24900960927516E-01 -3.13843515398667E+00
 Cartesian forces (hart/bohr); max,rms= 1.29137E-02 5.21533E-03 (free atoms)
  0.00000000000000E+00  0.00000000000000E+00  0.00000000000000E+00
  0.00000000000000E+00  0.00000000000000E+00  0.00000000000000E+00
  0.00000000000000E+00  0.00000000000000E+00  0.00000000000000E+00
  0.00000000000000E+00  0.00000000000000E+00  0.00000000000000E+00
 -1.15062269606503E-02  0.00000000000000E+00 -4.52181248183261E-03
 -1.15062269606503E-02  0.00000000000000E+00  4.52181248183261E-03
  1.15062269606503E-02  0.00000000000000E+00  4.52181248183261E-03
  1.15062269606503E-02  0.00000000000000E+00 -4.52181248183261E-03
  1.24036386525419E-03  0.00000000000000E+00 -1.29136594880866E-02
  1.24036386525419E-03  0.00000000000000E+00  1.29136594880866E-02
 -1.24036386525419E-03  0.00000000000000E+00  1.29136594880866E-02
 -1.24036386525419E-03  0.00000000000000E+00 -1.29136594880866E-02
  5.62496813833921E-03 -2.23437075833119E-03 -2.60660778867694E-03
  5.62496813833921E-03  2.23437075833119E-03  2.60660778867694E-03
 -5.62496813833921E-03 -2.23437075833119E-03  2.60660778867694E-03
 -5.62496813833921E-03  2.23437075833119E-03 -2.60660778867694E-03
 -5.62496813833921E-03  2.23437075833119E-03  2.60660778867694E-03
 -5.62496813833921E-03 -2.23437075833119E-03 -2.60660778867694E-03
  5.62496813833921E-03  2.23437075833119E-03 -2.60660778867694E-03
  5.62496813833921E-03 -2.23437075833119E-03  2.60660778867694E-03
 
 At the end of Broyden step  1, total energy= -2.06868026388116E+02 Ha.


 BROYDEN STEP NUMBER   2  ------------------------------------------------------

     iter   Etot(hartree)      deltaE(h)  residm     vres2    diffor    maxfor
 ETOT  1  -206.74544740871    -2.067E+02 9.329E-04 8.999E+02 4.897E-01 5.026E-01
 ETOT  2  -206.84965090299    -1.042E-01 1.514E-04 2.100E+02 2.751E-01 2.274E-01
 ETOT  3  -206.86216984461    -1.252E-02 2.416E-04 7.750E+01 1.539E-01 7.357E-02
 ETOT  4  -206.87127672063    -9.107E-03 1.724E-04 2.251E+01 3.673E-02 3.684E-02
 ETOT  5  -206.87245851969    -1.182E-03 4.288E-05 1.061E+01 3.777E-02 8.109E-03
 ETOT  6  -206.87327836046    -8.198E-04 9.568E-05 4.110E+00 1.124E-02 1.031E-02
 ETOT  7  -206.87357611716    -2.978E-04 3.103E-05 2.196E-01 7.642E-03 2.668E-03
 ETOT  8  -206.87358093432    -4.817E-06 5.770E-05 2.068E-01 7.810E-04 3.449E-03
 ETOT  9  -206.87359614767    -1.521E-05 1.864E-05 7.148E-02 1.802E-03 2.504E-03
 ETOT 10  -206.87359947807    -3.330E-06 3.782E-05 1.769E-02 2.910E-04 2.790E-03
 ETOT 11  -206.87359984357    -3.655E-07 1.368E-05 1.366E-02 2.861E-04 2.538E-03
 ETOT 12  -206.87360009157    -2.480E-07 2.797E-05 1.010E-02 8.716E-05 2.616E-03
 ETOT 13  -206.87360005717     3.440E-08 1.234E-05 7.164E-03 1.842E-04 2.492E-03
 ETOT 14  -206.87360042079    -3.636E-07 2.238E-05 3.747E-03 4.985E-04 2.803E-03
 ETOT 15  -206.87360053434    -1.135E-07 1.151E-05 1.449E-03 8.117E-05 2.849E-03
 ETOT 16  -206.87360058410    -4.977E-08 2.113E-05 1.104E-04 1.884E-04 2.955E-03
 ETOT 17  -206.87360059586    -1.175E-08 1.090E-05 3.094E-05 7.115E-05 2.900E-03
 ETOT 18  -206.87360060228    -6.421E-09 2.013E-05 1.684E-06 4.183E-05 2.923E-03
 ETOT 19  -206.87360060251    -2.260E-10 1.041E-05 1.074E-06 1.741E-05 2.910E-03

 At SCF step   19, forces are converged :
  for the second time, max diff in force=  1.741E-05 < toldff=  5.000E-05

 Cartesian components of stress tensor (hartree/bohr^3)
  sigma(1 1)=  2.30456192E-04  sigma(3 2)=  0.00000000E+00
  sigma(2 2)=  3.20014418E-04  sigma(3 1)=  0.00000000E+00
  sigma(3 3)=  3.17868018E-04  sigma(2 1)=  0.00000000E+00
 
 Cartesian coordinates (bohr)
 -4.50003437545815E-12  4.99991930729093E-12  5.37532557450650E+00
  5.47000084654550E+00  7.65905943170500E+00  6.50013888908218E-12
 -4.50003437545815E-12  7.65905943170500E+00  5.37532557450650E+00
  5.47000084654550E+00  4.99991930729093E-12  6.50013888908218E-12
 -5.43587315954905E-01  3.82952971585500E+00 -1.44880324125294E-01
  4.92641353059510E+00  3.82952971585500E+00  5.52020589863828E+00
  5.43587315945905E-01  1.14885891475550E+01  1.44880324138294E-01
  6.01358816249590E+00  1.14885891475550E+01  5.23044525037470E+00
  5.78630795581867E+00  3.82952971585500E+00  9.21661609460225E-01
  1.12563088023687E+01  3.82952971585500E+00  4.45366396505277E+00
 -5.78630795582767E+00  1.14885891475550E+01 -9.21661609447225E-01
 -3.16307109277682E-01  1.14885891475550E+01  6.29698718396024E+00
  2.28911162067619E+00  7.10326553360501E-01  8.49676532238009E+00
  7.75911246722619E+00  6.94873287834951E+00 -3.12143974786710E+00
 -2.28911162068519E+00  8.36938598506050E+00 -8.49676532236709E+00
  3.18088922586482E+00 -7.10326553350501E-01  1.38720908968801E+01
 -2.28911162068519E+00 -7.10326553350501E-01 -8.49676532236709E+00
  3.18088922586482E+00  8.36938598506050E+00  1.38720908968801E+01
  2.28911162067619E+00  6.94873287834951E+00  8.49676532238009E+00
  7.75911246722619E+00  7.10326553360501E-01 -3.12143974786710E+00
 Cartesian forces (hart/bohr); max,rms= 2.91018E-03 9.78751E-04 (free atoms)
  0.00000000000000E+00  0.00000000000000E+00  0.00000000000000E+00
  0.00000000000000E+00  0.00000000000000E+00  0.00000000000000E+00
  0.00000000000000E+00  0.00000000000000E+00  0.00000000000000E+00
  0.00000000000000E+00  0.00000000000000E+00  0.00000000000000E+00
 -3.39799430495638E-04  0.00000000000000E+00 -1.65626071105789E-04
 -3.39799430495638E-04  0.00000000000000E+00  1.65626071105789E-04
  3.39799430495638E-04  0.00000000000000E+00  1.65626071105789E-04
  3.39799430495638E-04  0.00000000000000E+00 -1.65626071105789E-04
 -2.91018047619329E-03  0.00000000000000E+00 -1.04577506687311E-03
 -2.91018047619329E-03  0.00000000000000E+00  1.04577506687311E-03
  2.91018047619329E-03  0.00000000000000E+00  1.04577506687311E-03
  2.91018047619329E-03  0.00000000000000E+00 -1.04577506687311E-03
  1.07655785249394E-03 -3.58114922907905E-04 -1.02205007475685E-03
  1.07655785249394E-03  3.58114922907905E-04  1.02205007475685E-03
 -1.07655785249394E-03 -3.58114922907905E-04  1.02205007475685E-03
 -1.07655785249394E-03  3.58114922907905E-04 -1.02205007475685E-03
 -1.07655785249394E-03  3.58114922907905E-04  1.02205007475685E-03
 -1.07655785249394E-03 -3.58114922907905E-04 -1.02205007475685E-03
  1.07655785249394E-03  3.58114922907905E-04 -1.02205007475685E-03
  1.07655785249394E-03 -3.58114922907905E-04  1.02205007475685E-03
 
 At the end of Broyden step  2, total energy= -2.06873600602505E+02 Ha.


 BROYDEN STEP NUMBER   3  ------------------------------------------------------

     iter   Etot(hartree)      deltaE(h)  residm     vres2    diffor    maxfor
 ETOT  1  -206.87250598336    -2.069E+02 7.579E-05 8.231E+00 4.719E-02 4.824E-02
 ETOT  2  -206.87357369853    -1.068E-03 5.381E-05 1.013E+00 3.457E-02 1.367E-02
 ETOT  3  -206.87359012162    -1.642E-05 1.498E-05 6.909E-01 6.291E-03 7.375E-03
 ETOT  4  -206.87365646251    -6.634E-05 4.904E-05 2.084E-01 4.873E-03 2.860E-03
 ETOT  5  -206.87368673896    -3.028E-05 1.449E-05 1.032E-01 1.729E-03 3.045E-03
 ETOT  6  -206.87369503721    -8.298E-06 4.401E-05 3.168E-02 5.749E-04 2.912E-03
 ETOT  7  -206.87369667697    -1.640E-06 1.398E-05 1.133E-02 3.779E-04 2.983E-03
 ETOT  8  -206.87369674741    -7.044E-08 4.107E-05 6.194E-03 1.056E-04 3.009E-03
 ETOT  9  -206.87369676442    -1.702E-08 1.334E-05 7.577E-03 5.320E-05 2.997E-03
 ETOT 10  -206.87369722643    -4.620E-07 3.825E-05 2.332E-03 1.854E-04 3.014E-03
 ETOT 11  -206.87369741048    -1.840E-07 1.285E-05 1.986E-04 8.806E-05 3.037E-03
 ETOT 12  -206.87369743153    -2.104E-08 3.572E-05 5.516E-05 1.275E-04 3.059E-03
 ETOT 13  -206.87369743495    -3.421E-09 1.227E-05 8.628E-06 1.459E-05 3.063E-03
 ETOT 14  -206.87369743531    -3.597E-10 3.332E-05 6.068E-06 1.538E-05 3.064E-03

 At SCF step   14, forces are converged :
  for the second time, max diff in force=  1.538E-05 < toldff=  5.000E-05

 Cartesian components of stress tensor (hartree/bohr^3)
  sigma(1 1)=  2.28123946E-04  sigma(3 2)=  0.00000000E+00
  sigma(2 2)=  3.20797467E-04  sigma(3 1)=  0.00000000E+00
  sigma(3 3)=  3.23396319E-04  sigma(2 1)=  0.00000000E+00
 
 Cartesian coordinates (bohr)
 -4.50003437545815E-12  4.99991930729093E-12  5.37532557450650E+00
  5.47000084654550E+00  7.65905943170500E+00  6.50013888908218E-12
 -4.50003437545815E-12  7.65905943170500E+00  5.37532557450650E+00
  5.47000084654550E+00  4.99991930729093E-12  6.50013888908218E-12
 -5.50041435852176E-01  3.82952971585500E+00 -1.47460878082962E-01
  4.91995941069782E+00  3.82952971585500E+00  5.52278645259596E+00
  5.50041435843175E-01  1.14885891475550E+01  1.47460878095963E-01
  6.02004228239316E+00  1.14885891475550E+01  5.22786469641704E+00
  5.78380170199577E+00  3.82952971585500E+00  9.13687003452703E-01
  1.12538025485458E+01  3.82952971585500E+00  4.46163857106030E+00
 -5.78380170200478E+00  1.14885891475550E+01 -9.13687003439703E-01
 -3.13800855454767E-01  1.14885891475550E+01  6.28901257795270E+00
  2.29325632599897E+00  7.08752831520663E-01  8.49427630810537E+00
  7.76325717254897E+00  6.95030660018934E+00 -3.11895073359237E+00
 -2.29325632600797E+00  8.36781226322066E+00 -8.49427630809237E+00
  3.17674452054203E+00 -7.08752831510663E-01  1.38696018826054E+01
 -2.29325632600797E+00 -7.08752831510663E-01 -8.49427630809237E+00
  3.17674452054203E+00  8.36781226322066E+00  1.38696018826054E+01
  2.29325632599897E+00  6.95030660018934E+00  8.49427630810537E+00
  7.76325717254897E+00  7.08752831520663E-01 -3.11895073359237E+00
 Cartesian forces (hart/bohr); max,rms= 3.06404E-03 8.99552E-04 (free atoms)
  0.00000000000000E+00  0.00000000000000E+00  0.00000000000000E+00
  0.00000000000000E+00  0.00000000000000E+00  0.00000000000000E+00
  0.00000000000000E+00  0.00000000000000E+00  0.00000000000000E+00
  0.00000000000000E+00  0.00000000000000E+00  0.00000000000000E+00
  6.08160147001380E-04  0.00000000000000E+00  7.40565705281385E-05
  6.08160147001380E-04  0.00000000000000E+00 -7.40565705281385E-05
 -6.08160147001380E-04  0.00000000000000E+00 -7.40565705281385E-05
 -6.08160147001380E-04  0.00000000000000E+00  7.40565705281385E-05
 -3.06404242785088E-03  0.00000000000000E+00 -1.52543694722400E-04
 -3.06404242785088E-03  0.00000000000000E+00  1.52543694722400E-04
  3.06404242785088E-03  0.00000000000000E+00  1.52543694722400E-04
  3.06404242785088E-03  0.00000000000000E+00 -1.52543694722400E-04
  6.29071568176065E-04 -1.84961816917647E-04 -8.63441090785967E-04
  6.29071568176065E-04  1.84961816917647E-04  8.63441090785967E-04
 -6.29071568176065E-04 -1.84961816917647E-04  8.63441090785967E-04
 -6.29071568176065E-04  1.84961816917647E-04 -8.63441090785967E-04
 -6.29071568176065E-04  1.84961816917647E-04  8.63441090785967E-04
 -6.29071568176065E-04 -1.84961816917647E-04 -8.63441090785967E-04
  6.29071568176065E-04  1.84961816917647E-04 -8.63441090785967E-04
  6.29071568176065E-04 -1.84961816917647E-04  8.63441090785967E-04
 
 At the end of Broyden step  3, total energy= -2.06873697435305E+02 Ha.


 BROYDEN STEP NUMBER   4  ------------------------------------------------------

     iter   Etot(hartree)      deltaE(h)  residm     vres2    diffor    maxfor
 ETOT  1  -206.87261440018    -2.069E+02 1.099E-04 7.760E+00 3.999E-02 4.014E-02
 ETOT  2  -206.87366513070    -1.051E-03 4.964E-05 1.003E+00 2.824E-02 1.191E-02
 ETOT  3  -206.87368463810    -1.951E-05 1.275E-05 6.778E-01 5.643E-03 6.263E-03
 ETOT  4  -206.87375690351    -7.227E-05 3.977E-05 1.988E-01 4.575E-03 3.877E-03
 ETOT  5  -206.87378529787    -2.839E-05 1.222E-05 9.001E-02 1.450E-03 2.758E-03
 ETOT  6  -206.87379303836    -7.740E-06 3.498E-05 2.640E-02 4.648E-04 3.032E-03
 ETOT  7  -206.87379451173    -1.473E-06 1.132E-05 9.168E-03 3.577E-04 2.891E-03
 ETOT  8  -206.87379461503    -1.033E-07 3.194E-05 4.459E-03 1.065E-04 2.900E-03
 ETOT  9  -206.87379462335    -8.314E-09 1.049E-05 5.455E-03 5.506E-05 2.887E-03
 ETOT 10  -206.87379496642    -3.431E-07 2.924E-05 1.447E-03 1.844E-04 2.812E-03
 ETOT 11  -206.87379513680    -1.704E-07 9.798E-06 1.632E-04 5.600E-05 2.819E-03
 ETOT 12  -206.87379515415    -1.735E-08 2.685E-05 4.766E-05 9.340E-05 2.768E-03
 ETOT 13  -206.87379515518    -1.035E-09 9.109E-06 2.586E-05 1.286E-05 2.767E-03
 ETOT 14  -206.87379515757    -2.387E-09 2.467E-05 8.725E-06 8.797E-06 2.772E-03

 At SCF step   14, forces are converged :
  for the second time, max diff in force=  8.797E-06 < toldff=  5.000E-05

 Cartesian components of stress tensor (hartree/bohr^3)
  sigma(1 1)=  2.29449597E-04  sigma(3 2)=  0.00000000E+00
  sigma(2 2)=  3.21601421E-04  sigma(3 1)=  0.00000000E+00
  sigma(3 3)=  3.27498116E-04  sigma(2 1)=  0.00000000E+00
 
 Cartesian coordinates (bohr)
 -4.50003437545815E-12  4.99991930729093E-12  5.37532557450650E+00
  5.47000084654550E+00  7.65905943170500E+00  6.50013888908218E-12
 -4.50003437545815E-12  7.65905943170500E+00  5.37532557450650E+00
  5.47000084654550E+00  4.99991930729093E-12  6.50013888908218E-12
 -5.54268791552421E-01  3.82952971585500E+00 -1.49458716374390E-01
  4.91573205499757E+00  3.82952971585500E+00  5.52478429088740E+00
  5.54268791543421E-01  1.14885891475550E+01  1.49458716387390E-01
  6.02426963809342E+00  1.14885891475550E+01  5.22586685812561E+00
  5.77699540533627E+00  3.82952971585500E+00  9.06999980285062E-01
  1.12469962518863E+01  3.82952971585500E+00  4.46832559422794E+00
 -5.77699540534527E+00  1.14885891475550E+01 -9.06999980272061E-01
 -3.06994558795267E-01  1.14885891475550E+01  6.28232555478505E+00
  2.29756701559057E+00  7.07195480719707E-01  8.49091831793051E+00
  7.76756786214056E+00  6.95186395099030E+00 -3.11559274341751E+00
 -2.29756701559957E+00  8.36625491241971E+00 -8.49091831791751E+00
  3.17243383095042E+00 -7.07195480709707E-01  1.38662438924305E+01
 -2.29756701559957E+00 -7.07195480709707E-01 -8.49091831791751E+00
  3.17243383095042E+00  8.36625491241971E+00  1.38662438924305E+01
  2.29756701559057E+00  6.95186395099030E+00  8.49091831793051E+00
  7.76756786214056E+00  7.07195480719707E-01 -3.11559274341751E+00
 Cartesian forces (hart/bohr); max,rms= 2.77162E-03 8.34683E-04 (free atoms)
  0.00000000000000E+00  0.00000000000000E+00  0.00000000000000E+00
  0.00000000000000E+00  0.00000000000000E+00  0.00000000000000E+00
  0.00000000000000E+00  0.00000000000000E+00  0.00000000000000E+00
  0.00000000000000E+00  0.00000000000000E+00  0.00000000000000E+00
  1.17080556513853E-03  0.00000000000000E+00  2.39006206316094E-04
  1.17080556513853E-03  0.00000000000000E+00 -2.39006206316094E-04
 -1.17080556513853E-03  0.00000000000000E+00 -2.39006206316094E-04
 -1.17080556513853E-03  0.00000000000000E+00  2.39006206316094E-04
 -2.77162408091540E-03  0.00000000000000E+00  4.50724707627219E-04
 -2.77162408091540E-03  0.00000000000000E+00 -4.50724707627219E-04
  2.77162408091540E-03  0.00000000000000E+00 -4.50724707627219E-04
  2.77162408091540E-03  0.00000000000000E+00  4.50724707627219E-04
  2.72206297923304E-04 -3.45674650615856E-06 -7.03300336826642E-04
  2.72206297923304E-04  3.45674650615856E-06  7.03300336826642E-04
 -2.72206297923304E-04 -3.45674650615856E-06  7.03300336826642E-04
 -2.72206297923304E-04  3.45674650615856E-06 -7.03300336826642E-04
 -2.72206297923304E-04  3.45674650615856E-06  7.03300336826642E-04
 -2.72206297923304E-04 -3.45674650615856E-06 -7.03300336826642E-04
  2.72206297923304E-04  3.45674650615856E-06 -7.03300336826642E-04
  2.72206297923304E-04 -3.45674650615856E-06  7.03300336826642E-04
 
 At the end of Broyden step  4, total energy= -2.06873795157568E+02 Ha.


 BROYDEN STEP NUMBER   5  ------------------------------------------------------

     iter   Etot(hartree)      deltaE(h)  residm     vres2    diffor    maxfor
 ETOT  1  -206.87082403372    -2.069E+02 6.318E-05 1.916E+01 7.732E-02 8.009E-02
 ETOT  2  -206.87361597205    -2.792E-03 2.253E-05 2.308E+00 5.633E-02 2.376E-02
 ETOT  3  -206.87368706609    -7.109E-05 1.487E-05 1.414E+00 1.313E-02 1.063E-02
 ETOT  4  -206.87384475337    -1.577E-04 1.839E-05 4.329E-01 5.662E-03 4.967E-03
 ETOT  5  -206.87390891218    -6.416E-05 1.015E-05 1.977E-01 2.929E-03 2.037E-03
 ETOT  6  -206.87392745034    -1.854E-05 1.410E-05 5.705E-02 7.180E-04 2.755E-03
 ETOT  7  -206.87393105868    -3.608E-06 8.317E-06 1.956E-02 5.166E-04 2.239E-03
 ETOT  8  -206.87393212170    -1.063E-06 1.204E-05 6.577E-03 1.584E-04 2.126E-03
 ETOT  9  -206.87393241700    -2.953E-07 7.122E-06 2.457E-03 1.818E-04 1.944E-03
 ETOT 10  -206.87393253152    -1.145E-07 1.064E-05 8.644E-04 6.333E-05 1.881E-03
 ETOT 11  -206.87393255233    -2.081E-08 6.291E-06 4.490E-04 5.129E-05 1.829E-03
 ETOT 12  -206.87393257586    -2.353E-08 9.624E-06 1.637E-04 3.291E-05 1.800E-03
 ETOT 13  -206.87393259007    -1.421E-08 5.683E-06 6.661E-06 5.058E-05 1.749E-03
 ETOT 14  -206.87393259098    -9.127E-10 8.832E-06 2.150E-06 6.198E-06 1.755E-03
 ETOT 15  -206.87393259105    -6.553E-11 5.196E-06 1.304E-06 9.450E-06 1.746E-03

 At SCF step   15, forces are converged :
  for the second time, max diff in force=  9.450E-06 < toldff=  5.000E-05

 Cartesian components of stress tensor (hartree/bohr^3)
  sigma(1 1)=  2.36651555E-04  sigma(3 2)=  0.00000000E+00
  sigma(2 2)=  3.22745952E-04  sigma(3 1)=  0.00000000E+00
  sigma(3 3)=  3.31033913E-04  sigma(2 1)=  0.00000000E+00
 
 Cartesian coordinates (bohr)
 -4.50003437545815E-12  4.99991930729093E-12  5.37532557450650E+00
  5.47000084654550E+00  7.65905943170500E+00  6.50013888908218E-12
 -4.50003437545815E-12  7.65905943170500E+00  5.37532557450650E+00
  5.47000084654550E+00  4.99991930729093E-12  6.50013888908218E-12
 -5.56611777425940E-01  3.82952971585500E+00 -1.51251754714181E-01
  4.91338906912406E+00  3.82952971585500E+00  5.52657732922718E+00
  5.56611777416940E-01  1.14885891475550E+01  1.51251754727182E-01
  6.02661262396694E+00  1.14885891475550E+01  5.22407381978582E+00
  5.76133000197427E+00  3.82952971585500E+00  8.99868218655455E-01
  1.12313308485243E+01  3.82952971585500E+00  4.47545735585755E+00
 -5.76133000198327E+00  1.14885891475550E+01 -8.99868218642455E-01
 -2.91329155433281E-01  1.14885891475550E+01  6.27519379315546E+00
  2.30369410742563E+00  7.05212406899108E-01  8.48494146348005E+00
  7.77369495397563E+00  6.95384702481090E+00 -3.10961588896705E+00
 -2.30369410743463E+00  8.36427183859911E+00 -8.48494146346705E+00
  3.16630673911537E+00 -7.05212406889108E-01  1.38602670379801E+01
 -2.30369410743463E+00 -7.05212406889108E-01 -8.48494146346705E+00
  3.16630673911537E+00  8.36427183859911E+00  1.38602670379801E+01
  2.30369410742563E+00  6.95384702481090E+00  8.48494146348005E+00
  7.77369495397563E+00  7.05212406899108E-01 -3.10961588896705E+00
 Cartesian forces (hart/bohr); max,rms= 1.74560E-03 6.63972E-04 (free atoms)
  0.00000000000000E+00  0.00000000000000E+00  0.00000000000000E+00
  0.00000000000000E+00  0.00000000000000E+00  0.00000000000000E+00
  0.00000000000000E+00  0.00000000000000E+00  0.00000000000000E+00
  0.00000000000000E+00  0.00000000000000E+00  0.00000000000000E+00
  1.40328227714971E-03  0.00000000000000E+00  3.47087598255611E-04
  1.40328227714971E-03  0.00000000000000E+00 -3.47087598255611E-04
 -1.40328227714971E-03  0.00000000000000E+00 -3.47087598255611E-04
 -1.40328227714971E-03  0.00000000000000E+00  3.47087598255611E-04
 -1.74560340376910E-03  0.00000000000000E+00  9.49395919227502E-04
 -1.74560340376910E-03  0.00000000000000E+00 -9.49395919227502E-04
  1.74560340376910E-03  0.00000000000000E+00 -9.49395919227502E-04
  1.74560340376910E-03  0.00000000000000E+00  9.49395919227502E-04
 -1.23361208006108E-04  2.54207416173336E-04 -4.55549023522805E-04
 -1.23361208006108E-04 -2.54207416173336E-04  4.55549023522805E-04
  1.23361208006108E-04  2.54207416173336E-04  4.55549023522805E-04
  1.23361208006108E-04 -2.54207416173336E-04 -4.55549023522805E-04
  1.23361208006108E-04 -2.54207416173336E-04  4.55549023522805E-04
  1.23361208006108E-04  2.54207416173336E-04 -4.55549023522805E-04
 -1.23361208006108E-04 -2.54207416173336E-04 -4.55549023522805E-04
 -1.23361208006108E-04  2.54207416173336E-04  4.55549023522805E-04
 
 At the end of Broyden step  5, total energy= -2.06873932591046E+02 Ha.


 BROYDEN STEP NUMBER   6  ------------------------------------------------------

     iter   Etot(hartree)      deltaE(h)  residm     vres2    diffor    maxfor
 ETOT  1  -206.87189036601    -2.069E+02 6.262E-05 1.237E+01 8.601E-02 8.775E-02
 ETOT  2  -206.87381330061    -1.923E-03 3.226E-05 1.413E+00 6.254E-02 2.521E-02
 ETOT  3  -206.87386421019    -5.091E-05 8.438E-06 8.410E-01 1.481E-02 1.039E-02
 ETOT  4  -206.87396748416    -1.033E-04 2.596E-05 2.577E-01 6.186E-03 4.209E-03
 ETOT  5  -206.87400558564    -3.810E-05 7.272E-06 1.193E-01 2.901E-03 1.621E-03
 ETOT  6  -206.87401704167    -1.146E-05 2.126E-05 3.553E-02 5.496E-04 1.857E-03
 ETOT  7  -206.87401941753    -2.376E-06 6.430E-06 1.238E-02 6.295E-04 1.297E-03
 ETOT  8  -206.87402012590    -7.084E-07 1.840E-05 4.267E-03 1.711E-04 1.153E-03
 ETOT  9  -206.87402036234    -2.364E-07 5.827E-06 6.949E-04 2.501E-04 1.033E-03
 ETOT 10  -206.87402040824    -4.590E-08 1.611E-05 2.845E-04 1.545E-04 9.824E-04
 ETOT 11  -206.87402043797    -2.973E-08 5.306E-06 8.511E-05 3.676E-05 9.643E-04
 ETOT 12  -206.87402044619    -8.211E-09 1.418E-05 2.183E-05 9.960E-05 9.347E-04
 ETOT 13  -206.87402044730    -1.114E-09 4.838E-06 9.021E-06 1.412E-05 9.224E-04
 ETOT 14  -206.87402044793    -6.349E-10 1.253E-05 3.840E-06 2.837E-05 9.310E-04

 At SCF step   14, forces are converged :
  for the second time, max diff in force=  2.837E-05 < toldff=  5.000E-05

 Cartesian components of stress tensor (hartree/bohr^3)
  sigma(1 1)=  2.46057828E-04  sigma(3 2)=  0.00000000E+00
  sigma(2 2)=  3.23444905E-04  sigma(3 1)=  0.00000000E+00
  sigma(3 3)=  3.30337656E-04  sigma(2 1)=  0.00000000E+00
 
 Cartesian coordinates (bohr)
 -4.50003437545815E-12  4.99991930729093E-12  5.37532557450650E+00
  5.47000084654550E+00  7.65905943170500E+00  6.50013888908218E-12
 -4.50003437545815E-12  7.65905943170500E+00  5.37532557450650E+00
  5.47000084654550E+00  4.99991930729093E-12  6.50013888908218E-12
 -5.53659518291394E-01  3.82952971585500E+00 -1.50948864608785E-01
  4.91634132825861E+00  3.82952971585500E+00  5.52627443912178E+00
  5.53659518282394E-01  1.14885891475550E+01  1.50948864621785E-01
  6.02366036483239E+00  1.14885891475550E+01  5.22437670989121E+00
  5.74679160832791E+00  3.82952971585500E+00  8.99038125160502E-01
  1.12167924548779E+01  3.82952971585500E+00  4.47628744935250E+00
 -5.74679160833691E+00  1.14885891475550E+01 -8.99038125147502E-01
 -2.76790761786919E-01  1.14885891475550E+01  6.27436369966051E+00
  2.30678669019301E+00  7.04618280831862E-01  8.48044965872482E+00
  7.77678753674301E+00  6.95444115087814E+00 -3.10512408421182E+00
 -2.30678669020201E+00  8.36367771253186E+00 -8.48044965871182E+00
  3.16321415634799E+00 -7.04618280821862E-01  1.38557752332248E+01
 -2.30678669020201E+00 -7.04618280821862E-01 -8.48044965871182E+00
  3.16321415634799E+00  8.36367771253186E+00  1.38557752332248E+01
  2.30678669019301E+00  6.95444115087814E+00  8.48044965872482E+00
  7.77678753674301E+00  7.04618280831862E-01 -3.10512408421182E+00
 Cartesian forces (hart/bohr); max,rms= 9.31000E-04 4.07455E-04 (free atoms)
  0.00000000000000E+00  0.00000000000000E+00  0.00000000000000E+00
  0.00000000000000E+00  0.00000000000000E+00  0.00000000000000E+00
  0.00000000000000E+00  0.00000000000000E+00  0.00000000000000E+00
  0.00000000000000E+00  0.00000000000000E+00  0.00000000000000E+00
  9.30999626056287E-04  0.00000000000000E+00  2.55738401918423E-04
  9.30999626056287E-04  0.00000000000000E+00 -2.55738401918423E-04
 -9.30999626056287E-04  0.00000000000000E+00 -2.55738401918423E-04
 -9.30999626056287E-04  0.00000000000000E+00  2.55738401918423E-04
 -6.03241221508167E-04  0.00000000000000E+00  7.94036762619074E-04
 -6.03241221508167E-04  0.00000000000000E+00 -7.94036762619074E-04
  6.03241221508167E-04  0.00000000000000E+00 -7.94036762619074E-04
  6.03241221508167E-04  0.00000000000000E+00  7.94036762619074E-04
 -1.75457577787846E-04  4.02443531912675E-04 -2.98535857916541E-04
 -1.75457577787846E-04 -4.02443531912675E-04  2.98535857916541E-04
  1.75457577787846E-04  4.02443531912675E-04  2.98535857916541E-04
  1.75457577787846E-04 -4.02443531912675E-04 -2.98535857916541E-04
  1.75457577787846E-04 -4.02443531912675E-04  2.98535857916541E-04
  1.75457577787846E-04  4.02443531912675E-04 -2.98535857916541E-04
 -1.75457577787846E-04 -4.02443531912675E-04 -2.98535857916541E-04
 -1.75457577787846E-04  4.02443531912675E-04  2.98535857916541E-04
 
 At the end of Broyden step  6, total energy= -2.06874020447934E+02 Ha.


 BROYDEN STEP NUMBER   7  ------------------------------------------------------

     iter   Etot(hartree)      deltaE(h)  residm     vres2    diffor    maxfor
 ETOT  1  -206.87316404356    -2.069E+02 4.693E-05 5.107E+00 5.363E-02 5.424E-02
 ETOT  2  -206.87396120948    -7.972E-04 1.750E-05 5.545E-01 4.138E-02 1.285E-02
 ETOT  3  -206.87402926872    -6.806E-05 5.691E-06 1.224E-01 1.104E-02 2.453E-03
 ETOT  4  -206.87404751579    -1.825E-05 1.146E-05 5.784E-02 1.506E-03 9.475E-04
 ETOT  5  -206.87405251460    -4.999E-06 4.899E-06 1.653E-02 2.083E-04 7.392E-04
 ETOT  6  -206.87405353803    -1.023E-06 1.057E-05 2.714E-03 1.540E-03 8.272E-04
 ETOT  7  -206.87405388037    -3.423E-07 4.680E-06 1.068E-03 8.854E-04 4.181E-04
 ETOT  8  -206.87405398973    -1.094E-07 9.713E-06 1.144E-04 2.621E-04 4.030E-04
 ETOT  9  -206.87405399632    -6.582E-09 4.527E-06 5.547E-05 1.444E-04 4.097E-04
 ETOT 10  -206.87405399993    -3.609E-09 8.875E-06 2.554E-05 9.031E-05 4.028E-04
 ETOT 11  -206.87405400138    -1.451E-09 4.375E-06 1.030E-05 6.537E-05 4.047E-04
 ETOT 12  -206.87405400159    -2.128E-10 8.552E-06 1.082E-05 1.721E-05 4.045E-04
 ETOT 13  -206.87405400217    -5.861E-10 4.218E-06 4.183E-06 1.566E-05 4.035E-04

 At SCF step   13, forces are converged :
  for the second time, max diff in force=  1.566E-05 < toldff=  5.000E-05

 Cartesian components of stress tensor (hartree/bohr^3)
  sigma(1 1)=  2.52649800E-04  sigma(3 2)=  0.00000000E+00
  sigma(2 2)=  3.23542683E-04  sigma(3 1)=  0.00000000E+00
  sigma(3 3)=  3.27293096E-04  sigma(2 1)=  0.00000000E+00
 
 Cartesian coordinates (bohr)
 -4.50003437545815E-12  4.99991930729093E-12  5.37532557450650E+00
  5.47000084654550E+00  7.65905943170500E+00  6.50013888908218E-12
 -4.50003437545815E-12  7.65905943170500E+00  5.37532557450650E+00
  5.47000084654550E+00  4.99991930729093E-12  6.50013888908218E-12
 -5.48816711997756E-01  3.82952971585500E+00 -1.49522913513019E-01
  4.92118413455224E+00  3.82952971585500E+00  5.52484848802603E+00
  5.48816711988756E-01  1.14885891475550E+01  1.49522913526019E-01
  6.01881755853876E+00  1.14885891475550E+01  5.22580266098698E+00
  5.73914742709271E+00  3.82952971585500E+00  9.02346221334338E-01
  1.12091482736427E+01  3.82952971585500E+00  4.47297935317866E+00
 -5.73914742710171E+00  1.14885891475550E+01 -9.02346221321337E-01
 -2.69146580551707E-01  1.14885891475550E+01  6.27767179583435E+00
  2.30685526436431E+00  7.05343499911041E-01  8.47854026370385E+00
  7.77685611091431E+00  6.95371593179896E+00 -3.10321468919084E+00
 -2.30685526437331E+00  8.36440293161104E+00 -8.47854026369085E+00
  3.16314558217669E+00 -7.05343499901042E-01  1.38538658382038E+01
 -2.30685526437331E+00 -7.05343499901042E-01 -8.47854026369085E+00
  3.16314558217669E+00  8.36440293161104E+00  1.38538658382038E+01
  2.30685526436431E+00  6.95371593179896E+00  8.47854026370385E+00
  7.77685611091431E+00  7.05343499911041E-01 -3.10321468919084E+00
 Cartesian forces (hart/bohr); max,rms= 4.03466E-04 2.07621E-04 (free atoms)
  0.00000000000000E+00  0.00000000000000E+00  0.00000000000000E+00
  0.00000000000000E+00  0.00000000000000E+00  0.00000000000000E+00
  0.00000000000000E+00  0.00000000000000E+00  0.00000000000000E+00
  0.00000000000000E+00  0.00000000000000E+00  0.00000000000000E+00
  2.65034269987236E-04  0.00000000000000E+00  6.96772516626322E-05
  2.65034269987236E-04  0.00000000000000E+00 -6.96772516626322E-05
 -2.65034269987236E-04  0.00000000000000E+00 -6.96772516626322E-05
 -2.65034269987236E-04  0.00000000000000E+00  6.96772516626322E-05
  1.17372765109279E-04  0.00000000000000E+00  3.33588310152525E-04
  1.17372765109279E-04  0.00000000000000E+00 -3.33588310152525E-04
 -1.17372765109279E-04  0.00000000000000E+00 -3.33588310152525E-04
 -1.17372765109279E-04  0.00000000000000E+00  3.33588310152525E-04
 -1.23804218537755E-06  4.03465512584937E-04 -2.45835186542100E-04
 -1.23804218537755E-06 -4.03465512584937E-04  2.45835186542100E-04
  1.23804218537755E-06  4.03465512584937E-04  2.45835186542100E-04
  1.23804218537755E-06 -4.03465512584937E-04 -2.45835186542100E-04
  1.23804218537755E-06 -4.03465512584937E-04  2.45835186542100E-04
  1.23804218537755E-06  4.03465512584937E-04 -2.45835186542100E-04
 -1.23804218537755E-06 -4.03465512584937E-04 -2.45835186542100E-04
 -1.23804218537755E-06  4.03465512584937E-04  2.45835186542100E-04
 
 At the end of Broyden step  7, total energy= -2.06874054002175E+02 Ha.


 At Broyd/MD step   7, gradients are converged :
  max grad (force/stress) = 4.0347E-04 < tolmxf= 5.0000E-04 ha/bohr (free atoms)

================================================================================

 ----iterations are completed or convergence reached----

 Mean square residual over all n,k,spin=   2.3127E-08; max=  4.2184E-06
   0.1250  0.1667  0.1250    1  1.11170E-08 kpt; spin; max resid(k); each band:
 2.00E-12 1.30E-12 3.80E-12 2.33E-12 1.38E-12 3.71E-12 7.01E-13 8.59E-13
 5.59E-13 3.33E-12 1.16E-12 2.15E-12 8.58E-13 9.35E-13 1.45E-12 1.52E-12
 2.10E-12 1.72E-12 1.15E-12 1.71E-12 2.17E-12 1.24E-12 1.27E-12 1.47E-12
 1.05E-12 2.27E-12 1.70E-12 1.79E-12 1.72E-12 1.21E-12 1.88E-12 3.14E-12
 2.99E-12 2.08E-12 2.20E-12 2.52E-12 1.99E-12 3.07E-12 1.13E-12 2.28E-12
 1.10E-12 1.16E-12 1.07E-12 1.93E-12 9.05E-13 1.12E-12 9.82E-13 1.28E-12
 5.03E-10 1.11E-08 6.55E-09
   0.3750  0.1667  0.1250    1  3.00682E-06 kpt; spin; max resid(k); each band:
 2.12E-12 3.19E-12 8.58E-13 6.46E-13 1.45E-12 2.86E-12 2.68E-12 1.96E-12
 2.35E-12 1.32E-12 7.50E-13 2.53E-12 2.45E-12 2.47E-12 1.91E-12 1.90E-12
 2.13E-12 1.81E-12 1.38E-12 1.35E-12 2.38E-12 1.56E-12 1.66E-12 1.35E-12
 1.81E-12 9.74E-13 1.76E-12 9.72E-13 1.48E-12 1.19E-12 2.03E-12 2.41E-12
 1.32E-12 3.03E-12 2.01E-12 2.31E-12 2.14E-12 1.02E-12 1.44E-12 1.53E-12
 1.48E-12 9.36E-13 1.30E-12 2.00E-12 1.24E-12 1.31E-12 2.25E-12 9.70E-13
 1.13E-09 1.22E-08 3.01E-06
   0.1250  0.5000  0.1250    1  4.78694E-08 kpt; spin; max resid(k); each band:
 1.99E-12 1.92E-12 3.84E-12 3.84E-12 1.02E-12 9.93E-13 9.53E-13 9.59E-13
 1.15E-12 1.15E-12 2.80E-12 2.82E-12 1.02E-12 1.02E-12 1.44E-12 1.43E-12
 1.26E-12 1.27E-12 1.80E-12 1.86E-12 1.67E-12 1.66E-12 1.20E-12 1.24E-12
 1.84E-12 1.83E-12 1.72E-12 1.72E-12 2.21E-12 2.22E-12 2.47E-12 2.47E-12
 3.18E-12 3.26E-12 2.14E-12 2.21E-12 1.71E-12 1.71E-12 2.21E-12 2.21E-12
 1.45E-12 1.43E-12 1.33E-12 1.33E-12 1.68E-12 1.83E-12 6.41E-13 6.66E-13
 4.57E-09 7.82E-09 4.79E-08
   0.3750  0.5000  0.1250    1  2.19344E-07 kpt; spin; max resid(k); each band:
 1.86E-12 1.86E-12 2.32E-12 2.32E-12 1.77E-12 1.78E-12 2.43E-12 2.43E-12
 4.42E-13 4.39E-13 2.60E-12 2.61E-12 2.22E-12 2.23E-12 2.14E-12 2.14E-12
 1.31E-12 1.32E-12 1.69E-12 1.71E-12 1.17E-12 1.17E-12 1.69E-12 1.69E-12
 1.70E-12 1.70E-12 2.41E-12 2.44E-12 1.92E-12 1.92E-12 2.22E-12 2.22E-12
 2.10E-12 2.10E-12 9.64E-13 9.92E-13 1.36E-12 1.37E-12 1.43E-12 1.43E-12
 1.62E-12 1.62E-12 1.36E-12 1.37E-12 2.05E-12 2.06E-12 1.48E-12 1.50E-12
 2.04E-09 2.19E-07 3.05E-09
   0.1250  0.1667  0.3750    1  4.21845E-06 kpt; spin; max resid(k); each band:
 1.99E-12 2.39E-12 1.10E-12 6.49E-13 2.81E-12 2.50E-12 1.42E-12 2.19E-12
 7.40E-13 2.89E-12 2.17E-12 2.29E-12 1.41E-12 1.31E-12 1.12E-12 1.59E-12
 2.08E-12 1.65E-12 1.29E-12 2.25E-12 1.64E-12 2.30E-12 1.37E-12 1.80E-12
 1.15E-12 8.77E-13 1.40E-12 2.28E-12 1.91E-12 1.30E-12 1.96E-12 1.14E-12
 1.89E-12 2.27E-12 2.08E-12 3.78E-12 1.84E-12 2.50E-12 2.56E-12 2.39E-12
 9.24E-13 1.24E-12 2.01E-12 1.66E-12 1.17E-12 1.41E-12 1.66E-12 8.41E-13
 2.42E-09 3.47E-09 4.22E-06
   0.3750  0.1667  0.3750    1  6.61014E-08 kpt; spin; max resid(k); each band:
 2.10E-12 6.96E-13 2.84E-12 5.46E-13 1.14E-12 2.57E-12 1.43E-12 2.48E-12
 1.28E-12 6.26E-13 3.37E-12 3.36E-12 2.59E-12 2.55E-12 1.45E-12 1.56E-12
 1.46E-12 1.31E-12 1.33E-12 1.33E-12 1.30E-12 1.32E-12 1.39E-12 1.42E-12
 2.19E-12 3.20E-12 2.81E-12 1.77E-12 1.20E-12 2.66E-12 3.13E-12 1.55E-12
 9.98E-13 1.17E-12 1.16E-12 1.06E-12 1.54E-12 1.19E-12 1.37E-12 9.90E-13
 1.22E-12 2.10E-12 1.50E-12 1.23E-12 1.46E-12 1.78E-12 2.19E-12 1.86E-12
 1.97E-09 4.67E-09 6.61E-08
   0.1250  0.5000  0.3750    1  1.01815E-08 kpt; spin; max resid(k); each band:
 1.75E-12 1.79E-12 2.22E-12 2.23E-12 1.74E-12 1.76E-12 9.01E-13 8.87E-13
 3.06E-12 3.10E-12 1.95E-12 1.96E-12 1.08E-12 1.10E-12 1.34E-12 1.31E-12
 1.52E-12 1.50E-12 1.98E-12 1.97E-12 1.65E-12 1.73E-12 2.32E-12 2.36E-12
 1.45E-12 1.45E-12 2.15E-12 2.14E-12 1.53E-12 1.59E-12 1.79E-12 1.81E-12
 1.80E-12 1.74E-12 1.34E-12 1.42E-12 3.09E-12 3.09E-12 1.31E-12 1.31E-12
 1.63E-12 1.65E-12 1.91E-12 1.90E-12 1.71E-12 1.76E-12 1.31E-12 1.30E-12
 3.10E-09 2.88E-09 1.02E-08
   0.3750  0.5000  0.3750    1  1.77926E-06 kpt; spin; max resid(k); each band:
 1.58E-12 1.54E-12 1.60E-12 1.61E-12 1.83E-12 1.82E-12 1.54E-12 1.55E-12
 2.50E-12 2.49E-12 2.37E-12 2.40E-12 2.23E-12 2.20E-12 1.54E-12 1.46E-12
 2.03E-12 2.06E-12 1.63E-12 1.69E-12 2.24E-12 2.26E-12 2.24E-12 2.21E-12
 1.67E-12 1.68E-12 2.03E-12 2.12E-12 1.48E-12 1.50E-12 1.45E-12 1.42E-12
 1.02E-12 1.08E-12 1.33E-12 1.33E-12 1.66E-12 1.61E-12 1.29E-12 1.29E-12
 1.90E-12 1.90E-12 1.42E-12 1.41E-12 2.03E-12 2.03E-12 1.77E-12 1.76E-12
 5.57E-09 1.78E-06 1.41E-08
 reduced coordinates (array xred) for   20 atoms
       0.000000000000      0.000000000000      0.500000000001
       0.500000000000      0.500000000000      0.000000000001
       0.000000000000      0.500000000000      0.500000000001
       0.500000000000      0.000000000000      0.000000000001
      -0.050166053662      0.250000000000     -0.013908265782
       0.449833946338      0.250000000000      0.513908265784
       0.050166053661      0.750000000000      0.013908265784
       0.550166053661      0.750000000000      0.486091734218
       0.524602060228      0.250000000000      0.083934099324
       1.024602060228      0.250000000000      0.416065900678
      -0.524602060228      0.750000000000     -0.083934099322
      -0.024602060228      0.750000000000      0.583934099324
       0.210864251129      0.046046352441      0.788653649551
       0.710864251129      0.453953647560     -0.288653649549
      -0.210864251130      0.546046352441     -0.788653649549
       0.289135748870     -0.046046352440      1.288653649551
      -0.210864251130     -0.046046352440     -0.788653649549
       0.289135748870      0.546046352441      1.288653649551
       0.210864251129      0.453953647560      0.788653649551
       0.710864251129      0.046046352441     -0.288653649549
 rms dE/dt=  2.7549E-03; max dE/dt=  6.1803E-03; dE/dt below (all hartree)
    1       0.000000000000      0.000000000000      0.000000000000
    2       0.000000000000      0.000000000000      0.000000000000
    3       0.000000000000      0.000000000000      0.000000000000
    4       0.000000000000      0.000000000000      0.000000000000
    5      -0.002899475362      0.000000000000     -0.000749075826
    6      -0.002899475362      0.000000000000      0.000749075826
    7       0.002899475362      0.000000000000      0.000749075826
    8       0.002899475362      0.000000000000     -0.000749075826
    9      -0.001284058249      0.000000000000     -0.003586291550
   10      -0.001284058249      0.000000000000      0.003586291550
   11       0.001284058249      0.000000000000      0.003586291550
   12       0.001284058249      0.000000000000     -0.003586291550
   13       0.000013544184     -0.006180332679      0.002642888331
   14       0.000013544184      0.006180332679     -0.002642888331
   15      -0.000013544184     -0.006180332679     -0.002642888331
   16      -0.000013544184      0.006180332679      0.002642888331
   17      -0.000013544184      0.006180332679     -0.002642888331
   18      -0.000013544184     -0.006180332679      0.002642888331
   19       0.000013544184      0.006180332679      0.002642888331
   20       0.000013544184     -0.006180332679     -0.002642888331
 
 cartesian coordinates (angstrom) at end:
    1     -0.00000000000238     0.00000000000265     2.84449978122094
    2      2.89459977737358     4.05299968827344     0.00000000000344
    3     -0.00000000000238     4.05299968827344     2.84449978122094
    4      2.89459977737358     0.00000000000265     0.00000000000344
    5     -0.29042129552336     2.02649984413804    -0.07912411794970
    6      2.60417848185261     2.02649984413804     2.92362389917409
    7      0.29042129551860     6.07949953240883     0.07912411795658
    8      3.18502107289456     6.07949953240883     2.76537566326780
    9      3.03702601349105     2.02649984413804     0.47750105432576
   10      5.93162579086701     2.02649984413804     2.36699872689862
   11     -3.03702601349581     6.07949953240883    -0.47750105431888
   12     -0.14242623611984     6.07949953240883     3.32200083554326
   13      1.22073522874847     0.37325170417548     4.48665026720595
   14      4.11533500612443     3.67974798410061    -1.64215048598156
   15     -1.22073522875323     4.42625139244627    -4.48665026719907
   16      1.67386454862274    -0.37325170417018     7.33115004842345
   17     -1.22073522875323    -0.37325170417018    -4.48665026719907
   18      1.67386454862274     4.42625139244627     7.33115004842345
   19      1.22073522874847     3.67974798410061     4.48665026720595
   20      4.11533500612443     0.37325170417548    -1.64215048598156

 cartesian forces (hartree/bohr) at end:
    1      0.00000000000000     0.00000000000000     0.00000000000000
    2      0.00000000000000     0.00000000000000     0.00000000000000
    3      0.00000000000000     0.00000000000000     0.00000000000000
    4      0.00000000000000     0.00000000000000     0.00000000000000
    5      0.00026503426999     0.00000000000000     0.00006967725166
    6      0.00026503426999     0.00000000000000    -0.00006967725166
    7     -0.00026503426999     0.00000000000000    -0.00006967725166
    8     -0.00026503426999     0.00000000000000     0.00006967725166
    9      0.00011737276511     0.00000000000000     0.00033358831015
   10      0.00011737276511     0.00000000000000    -0.00033358831015
   11     -0.00011737276511     0.00000000000000    -0.00033358831015
   12     -0.00011737276511     0.00000000000000     0.00033358831015
   13     -0.00000123804219     0.00040346551258    -0.00024583518654
   14     -0.00000123804219    -0.00040346551258     0.00024583518654
   15      0.00000123804219     0.00040346551258     0.00024583518654
   16      0.00000123804219    -0.00040346551258    -0.00024583518654
   17      0.00000123804219    -0.00040346551258     0.00024583518654
   18      0.00000123804219     0.00040346551258    -0.00024583518654
   19     -0.00000123804219    -0.00040346551258    -0.00024583518654
   20     -0.00000123804219     0.00040346551258     0.00024583518654
 frms,max,avg= 2.0762103E-04 4.0346551E-04   0.000E+00  0.000E+00  0.000E+00 h/b

 cartesian forces (eV/Angstrom) at end:
    1      0.00000000000000     0.00000000000000     0.00000000000000
    2      0.00000000000000     0.00000000000000     0.00000000000000
    3      0.00000000000000     0.00000000000000     0.00000000000000
    4      0.00000000000000     0.00000000000000     0.00000000000000
    5      0.01362860875647     0.00000000000000     0.00358294797945
    6      0.01362860875647     0.00000000000000    -0.00358294797945
    7     -0.01362860875647     0.00000000000000    -0.00358294797945
    8     -0.01362860875647     0.00000000000000     0.00358294797945
    9      0.00603554964577     0.00000000000000     0.01715379888427
   10      0.00603554964577     0.00000000000000    -0.01715379888427
   11     -0.00603554964577     0.00000000000000    -0.01715379888427
   12     -0.00603554964577     0.00000000000000     0.01715379888427
   13     -0.00006366268245     0.02074702874467    -0.01264135229047
   14     -0.00006366268245    -0.02074702874467     0.01264135229047
   15      0.00006366268245     0.02074702874467     0.01264135229047
   16      0.00006366268245    -0.02074702874467    -0.01264135229047
   17      0.00006366268245    -0.02074702874467     0.01264135229047
   18      0.00006366268245     0.02074702874467    -0.01264135229047
   19     -0.00006366268245    -0.02074702874467    -0.01264135229047
   20     -0.00006366268245     0.02074702874467     0.01264135229047
 frms,max,avg= 1.0676302E-02 2.0747029E-02   0.000E+00  0.000E+00  0.000E+00 e/A
 length scales= 10.940001693100 15.318118863400 10.750651149000 bohr
              =  5.789199554752  8.105999376542  5.688999562435 angstroms
 Eigenvalues (hartree) for nkpt=   8  k points:
 kpt#   1, nband= 51, wtk=  0.16667, kpt=  0.1250  0.1667  0.1250 (reduced coord)
  -0.80903  -0.79132  -0.78756  -0.78153  -0.78083  -0.77923  -0.77878  -0.77738
  -0.77631  -0.77488  -0.77319  -0.77197  -0.34548  -0.33716  -0.33560  -0.33209
  -0.32334  -0.31934  -0.31384  -0.31147  -0.30796  -0.30559  -0.30493  -0.30406
  -0.30224  -0.30069  -0.29571  -0.29300  -0.28993  -0.28494  -0.28133  -0.27949
  -0.26523  -0.26121  -0.25988  -0.25677  -0.25175  -0.24871  -0.24528  -0.23851
  -0.23568  -0.23395  -0.23232  -0.22923  -0.22866  -0.22188  -0.21844  -0.21571
  -0.05730  -0.05540  -0.05319
 kpt#   2, nband= 51, wtk=  0.16667, kpt=  0.3750  0.1667  0.1250 (reduced coord)
  -0.80058  -0.78955  -0.78838  -0.78450  -0.78006  -0.77971  -0.77724  -0.77697
  -0.77662  -0.77606  -0.77552  -0.77360  -0.33739  -0.33398  -0.33064  -0.32760
  -0.32447  -0.31986  -0.31808  -0.31384  -0.30996  -0.30890  -0.30514  -0.30356
  -0.30229  -0.29955  -0.29850  -0.29599  -0.29192  -0.28635  -0.28117  -0.27710
  -0.27263  -0.26811  -0.26416  -0.25663  -0.25496  -0.25282  -0.24843  -0.24024
  -0.23950  -0.23871  -0.23583  -0.23529  -0.22977  -0.22533  -0.22328  -0.22253
  -0.04837  -0.04262  -0.03582
 kpt#   3, nband= 51, wtk=  0.08333, kpt=  0.1250  0.5000  0.1250 (reduced coord)
  -0.80161  -0.80161  -0.78388  -0.78388  -0.77880  -0.77880  -0.77829  -0.77829
  -0.77496  -0.77496  -0.77361  -0.77361  -0.33473  -0.33473  -0.33111  -0.33111
  -0.32318  -0.32318  -0.31372  -0.31372  -0.30636  -0.30636  -0.30319  -0.30319
  -0.30046  -0.30046  -0.29451  -0.29451  -0.28798  -0.28798  -0.28330  -0.28330
  -0.26941  -0.26941  -0.26069  -0.26069  -0.25120  -0.25120  -0.23899  -0.23899
  -0.23493  -0.23493  -0.23106  -0.23106  -0.22462  -0.22462  -0.22160  -0.22160
  -0.04783  -0.04783  -0.04183
 kpt#   4, nband= 51, wtk=  0.08333, kpt=  0.3750  0.5000  0.1250 (reduced coord)
  -0.79500  -0.79500  -0.78648  -0.78648  -0.77885  -0.77885  -0.77732  -0.77732
  -0.77688  -0.77688  -0.77498  -0.77498  -0.33451  -0.33451  -0.33052  -0.33052
  -0.31679  -0.31679  -0.31235  -0.31235  -0.30854  -0.30854  -0.30660  -0.30660
  -0.29911  -0.29911  -0.29388  -0.29388  -0.29073  -0.29073  -0.28232  -0.28232
  -0.27786  -0.27786  -0.26672  -0.26672  -0.24792  -0.24792  -0.24246  -0.24246
  -0.24063  -0.24063  -0.23525  -0.23525  -0.22873  -0.22873  -0.22457  -0.22457
  -0.04168  -0.04167  -0.03706
 kpt#   5, nband= 51, wtk=  0.16667, kpt=  0.1250  0.1667  0.3750 (reduced coord)
  -0.80036  -0.79011  -0.78804  -0.78423  -0.77984  -0.77793  -0.77764  -0.77702
  -0.77645  -0.77577  -0.77536  -0.77379  -0.34216  -0.34035  -0.33615  -0.33174
  -0.32916  -0.32383  -0.32021  -0.31150  -0.30894  -0.30691  -0.30643  -0.30382
  -0.29811  -0.29774  -0.29409  -0.29280  -0.29128  -0.28560  -0.28373  -0.27973
  -0.27483  -0.26595  -0.26055  -0.25668  -0.25298  -0.25193  -0.24861  -0.24264
  -0.24024  -0.23891  -0.23646  -0.23160  -0.22803  -0.22678  -0.22172  -0.22043
  -0.05012  -0.04663  -0.03669
 kpt#   6, nband= 51, wtk=  0.16667, kpt=  0.3750  0.1667  0.3750 (reduced coord)
  -0.79415  -0.78866  -0.78777  -0.78729  -0.78208  -0.78060  -0.77835  -0.77744
  -0.77526  -0.77462  -0.77388  -0.77290  -0.34550  -0.34409  -0.33473  -0.33268
  -0.33073  -0.32641  -0.31604  -0.31335  -0.31061  -0.31013  -0.30845  -0.30397
  -0.30234  -0.29741  -0.29606  -0.29426  -0.29327  -0.28764  -0.28325  -0.28107
  -0.26662  -0.26597  -0.26208  -0.26081  -0.25513  -0.25449  -0.24949  -0.24886
  -0.24220  -0.24069  -0.23506  -0.23077  -0.22860  -0.22549  -0.22327  -0.22204
  -0.04326  -0.03533  -0.03473
 kpt#   7, nband= 51, wtk=  0.08333, kpt=  0.1250  0.5000  0.3750 (reduced coord)
  -0.79490  -0.79490  -0.78618  -0.78618  -0.77884  -0.77884  -0.77813  -0.77813
  -0.77611  -0.77611  -0.77422  -0.77422  -0.34108  -0.34108  -0.33715  -0.33715
  -0.31678  -0.31678  -0.31373  -0.31373  -0.30793  -0.30793  -0.30415  -0.30415
  -0.29737  -0.29737  -0.29256  -0.29256  -0.29001  -0.29001  -0.28275  -0.28275
  -0.27587  -0.27587  -0.26870  -0.26870  -0.25075  -0.25075  -0.24115  -0.24115
  -0.23922  -0.23922  -0.23229  -0.23229  -0.22828  -0.22828  -0.22334  -0.22334
  -0.04961  -0.04961  -0.03663
 kpt#   8, nband= 51, wtk=  0.08333, kpt=  0.3750  0.5000  0.3750 (reduced coord)
  -0.79088  -0.79088  -0.78680  -0.78680  -0.77996  -0.77996  -0.77897  -0.77897
  -0.77585  -0.77585  -0.77421  -0.77421  -0.33692  -0.33692  -0.33351  -0.33351
  -0.32397  -0.32397  -0.31919  -0.31919  -0.31218  -0.31218  -0.30801  -0.30801
  -0.29970  -0.29970  -0.29632  -0.29632  -0.29148  -0.29148  -0.27935  -0.27935
  -0.27275  -0.27275  -0.26226  -0.26226  -0.25579  -0.25579  -0.24453  -0.24453
  -0.24160  -0.24160  -0.23419  -0.23419  -0.22981  -0.22981  -0.22412  -0.22412
  -0.03540  -0.03530  -0.03240

,Min el dens=  2.0210E-05 el/bohr^3 at reduced coord.  0.0469  0.7444  0.0156
,   next min=  2.0210E-05 el/bohr^3 at reduced coord.  0.0469  0.7556  0.0156
,Max el dens=  9.6806E-01 el/bohr^3 at reduced coord.  0.2500  0.9556  0.3125
,   next max=  9.6806E-01 el/bohr^3 at reduced coord.  0.7500  0.5444  0.1875

 Seven components of total energy (hartree) are
 kinetic= 1.47815430909656E+02 Hartree= 6.93189985252301E+01
      xc=-4.75753855301628E+01 loc psp=-2.39833372596379E+02
 nl psp =-2.31949835552054E+01 pspcore= 3.78446508954784E+01
 Ewald  =-1.51249392650793E+02 resulting in Etotal=-2.06874054002175E+02 hartree
 Also Etotal= -5.62932919896548E+03 eV ; Eeig (band energy)= -3.8905809826E+01 Ha
 rms coord change=  4.5638E-03   atom, delta coord (reduced):
     1        0.000000000000      0.000000000000     -0.000000000001
     2        0.000000000000      0.000000000000      0.000000000001
     3        0.000000000000      0.000000000000     -0.000000000001
     4        0.000000000000      0.000000000000      0.000000000001
     5       -0.008566053662      0.000000000000     -0.003708265782
     6       -0.008566053661      0.000000000000      0.003708265782
     7        0.008566053661     -0.000000000001      0.003708265783
     8        0.008566053662     -0.000000000001     -0.003708265783
     9       -0.003397939772      0.000000000000     -0.011065900677
    10       -0.003397939771      0.000000000000      0.011065900677
    11        0.003397939771     -0.000000000001      0.011065900678
    12        0.003397939772     -0.000000000001     -0.011065900678
    13        0.005564251129     -0.001453647559     -0.003546350451
    14        0.005564251130      0.001453647559      0.003546350451
    15       -0.005564251130     -0.001453647560      0.003546350453
    16       -0.005564251129      0.001453647560     -0.003546350453
    17       -0.005564251130      0.001453647560      0.003546350453
    18       -0.005564251129     -0.001453647560     -0.003546350453
    19        0.005564251129      0.001453647559     -0.003546350451
    20        0.005564251130     -0.001453647559      0.003546350451

 Cartesian components of stress tensor (hartree/bohr^3)
  sigma(1 1)=  2.52649800E-04  sigma(3 2)=  0.00000000E+00
  sigma(2 2)=  3.23542683E-04  sigma(3 1)=  0.00000000E+00
  sigma(3 3)=  3.27293096E-04  sigma(2 1)=  0.00000000E+00

-Cartesian components of stress tensor (GPa)         [Pressure= -8.8605E+00 GPa]
- sigma(1 1)=  7.43321226E+00  sigma(3 2)=  0.00000000E+00
- sigma(2 2)=  9.51895247E+00  sigma(3 1)=  0.00000000E+00
- sigma(3 3)=  9.62929340E+00  sigma(2 1)=  0.00000000E+00

== END DATASET(S) ==============================================================
================================================================================
  
 -outvars: echo values of variables after computation  --------
     acell    1.0940001693E+01  1.5318118863E+01  1.0750651149E+01 Bohr
       amu    4.49559100E+01  1.59994000E+01  1.38905500E+02
    diemac    1.20000000E+01
      ecut    4.00000000E+01 Hartree
    etotal   -2.0687405400E+02
     fcart    0.0000000000E+00  0.0000000000E+00  0.0000000000E+00
              0.0000000000E+00  0.0000000000E+00  0.0000000000E+00
              0.0000000000E+00  0.0000000000E+00  0.0000000000E+00
              0.0000000000E+00  0.0000000000E+00  0.0000000000E+00
              2.6503426999E-04  0.0000000000E+00  6.9677251663E-05
              2.6503426999E-04  0.0000000000E+00 -6.9677251663E-05
             -2.6503426999E-04  0.0000000000E+00 -6.9677251663E-05
             -2.6503426999E-04  0.0000000000E+00  6.9677251663E-05
              1.1737276511E-04  0.0000000000E+00  3.3358831015E-04
              1.1737276511E-04  0.0000000000E+00 -3.3358831015E-04
             -1.1737276511E-04  0.0000000000E+00 -3.3358831015E-04
             -1.1737276511E-04  0.0000000000E+00  3.3358831015E-04
             -1.2380421854E-06  4.0346551258E-04 -2.4583518654E-04
             -1.2380421854E-06 -4.0346551258E-04  2.4583518654E-04
              1.2380421854E-06  4.0346551258E-04  2.4583518654E-04
              1.2380421854E-06 -4.0346551258E-04 -2.4583518654E-04
              1.2380421854E-06 -4.0346551258E-04  2.4583518654E-04
              1.2380421854E-06  4.0346551258E-04 -2.4583518654E-04
             -1.2380421854E-06 -4.0346551258E-04 -2.4583518654E-04
             -1.2380421854E-06  4.0346551258E-04  2.4583518654E-04
    ionmov         2
       ixc         7
       kpt    1.25000000E-01  1.66666667E-01  1.25000000E-01
              3.75000000E-01  1.66666667E-01  1.25000000E-01
              1.25000000E-01  5.00000000E-01  1.25000000E-01
              3.75000000E-01  5.00000000E-01  1.25000000E-01
              1.25000000E-01  1.66666667E-01  3.75000000E-01
              3.75000000E-01  1.66666667E-01  3.75000000E-01
              1.25000000E-01  5.00000000E-01  3.75000000E-01
              3.75000000E-01  5.00000000E-01  3.75000000E-01
   kptrlen    4.30026046E+01
    kptopt         1
  kptrlatt    4  0  0   0  3  0   0  0  4
     mkmem         8
     natom        20
     nband        51
     ngfft        64      90      64
      nkpt         8
     nstep       100
      nsym         8
     ntime       200
     ntype         3
       occ    2.000000  2.000000  2.000000  2.000000  2.000000  2.000000
              2.000000  2.000000  2.000000  2.000000  2.000000  2.000000
              2.000000  2.000000  2.000000  2.000000  2.000000  2.000000
              2.000000  2.000000  2.000000  2.000000  2.000000  2.000000
              2.000000  2.000000  2.000000  2.000000  2.000000  2.000000
              2.000000  2.000000  2.000000  2.000000  2.000000  2.000000
              2.000000  2.000000  2.000000  2.000000  2.000000  2.000000
              2.000000  2.000000  2.000000  2.000000  2.000000  2.000000
              0.000000  0.000000  0.000000
    shiftk    5.00000000E-01  5.00000000E-01  5.00000000E-01
    strten    2.5264979982E-04  3.2354268266E-04  3.2729309550E-04
              0.0000000000E+00  0.0000000000E+00  0.0000000000E+00
    symrel    1  0  0   0  1  0   0  0  1      -1  0  0   0 -1  0   0  0 -1
             -1  0  0   0  1  0   0  0 -1       1  0  0   0 -1  0   0  0  1
             -1  0  0   0 -1  0   0  0  1       1  0  0   0  1  0   0  0 -1
              1  0  0   0 -1  0   0  0 -1      -1  0  0   0  1  0   0  0  1
     tnons    0.0000000  0.0000000  0.0000000     0.0000000  0.0000000  0.0000000
              0.0000000  0.5000000  0.0000000     0.0000000  0.5000000  0.0000000
              0.5000000  0.0000000  0.5000000     0.5000000  0.0000000  0.5000000
              0.5000000  0.5000000  0.5000000     0.5000000  0.5000000  0.5000000
    toldff    5.00000000E-05
    tolmxf    5.00000000E-04
      type    1  1  1  1  3  3  3  3  2  2  2  2  2  2  2  2  2  2  2  2
       wtk      0.16667    0.16667    0.08333    0.08333    0.16667    0.16667
                0.08333    0.08333
    xangst   -2.3813156281E-12  2.6458433408E-12  2.8444997812E+00
              2.8945997774E+00  4.0529996883E+00  3.4397253509E-12
             -2.3813156281E-12  4.0529996883E+00  2.8444997812E+00
              2.8945997774E+00  2.6458433408E-12  3.4397253509E-12
             -2.9042129552E-01  2.0264998441E+00 -7.9124117950E-02
              2.6041784819E+00  2.0264998441E+00  2.9236238992E+00
              2.9042129552E-01  6.0794995324E+00  7.9124117957E-02
              3.1850210729E+00  6.0794995324E+00  2.7653756633E+00
              3.0370260135E+00  2.0264998441E+00  4.7750105433E-01
              5.9316257909E+00  2.0264998441E+00  2.3669987269E+00
             -3.0370260135E+00  6.0794995324E+00 -4.7750105432E-01
             -1.4242623612E-01  6.0794995324E+00  3.3220008355E+00
              1.2207352287E+00  3.7325170418E-01  4.4866502672E+00
              4.1153350061E+00  3.6797479841E+00 -1.6421504860E+00
             -1.2207352288E+00  4.4262513924E+00 -4.4866502672E+00
              1.6738645486E+00 -3.7325170417E-01  7.3311500484E+00
             -1.2207352288E+00 -3.7325170417E-01 -4.4866502672E+00
              1.6738645486E+00  4.4262513924E+00  7.3311500484E+00
              1.2207352287E+00  3.6797479841E+00  4.4866502672E+00
              4.1153350061E+00  3.7325170418E-01 -1.6421504860E+00
     xcart   -4.5000343755E-12  4.9999193073E-12  5.3753255745E+00
              5.4700008465E+00  7.6590594317E+00  6.5001388891E-12
             -4.5000343755E-12  7.6590594317E+00  5.3753255745E+00
              5.4700008465E+00  4.9999193073E-12  6.5001388891E-12
             -5.4881671200E-01  3.8295297159E+00 -1.4952291351E-01
              4.9211841346E+00  3.8295297159E+00  5.5248484880E+00
              5.4881671199E-01  1.1488589148E+01  1.4952291353E-01
              6.0188175585E+00  1.1488589148E+01  5.2258026610E+00
              5.7391474271E+00  3.8295297159E+00  9.0234622133E-01
              1.1209148274E+01  3.8295297159E+00  4.4729793532E+00
             -5.7391474271E+00  1.1488589148E+01 -9.0234622132E-01
             -2.6914658055E-01  1.1488589148E+01  6.2776717958E+00
              2.3068552644E+00  7.0534349991E-01  8.4785402637E+00
              7.7768561109E+00  6.9537159318E+00 -3.1032146892E+00
             -2.3068552644E+00  8.3644029316E+00 -8.4785402637E+00
              3.1631455822E+00 -7.0534349990E-01  1.3853865838E+01
             -2.3068552644E+00 -7.0534349990E-01 -8.4785402637E+00
              3.1631455822E+00  8.3644029316E+00  1.3853865838E+01
              2.3068552644E+00  6.9537159318E+00  8.4785402637E+00
              7.7768561109E+00  7.0534349991E-01 -3.1032146892E+00
      xred   -4.1133763062E-13  3.2640556924E-13  5.0000000000E-01
              5.0000000000E-01  5.0000000000E-01  6.0462745921E-13
             -4.1133763062E-13  5.0000000000E-01  5.0000000000E-01
              5.0000000000E-01  3.2640556924E-13  6.0462745921E-13
             -5.0166053662E-02  2.5000000000E-01 -1.3908265782E-02
              4.4983394634E-01  2.5000000000E-01  5.1390826578E-01
              5.0166053661E-02  7.5000000000E-01  1.3908265784E-02
              5.5016605366E-01  7.5000000000E-01  4.8609173422E-01
              5.2460206023E-01  2.5000000000E-01  8.3934099324E-02
              1.0246020602E+00  2.5000000000E-01  4.1606590068E-01
             -5.2460206023E-01  7.5000000000E-01 -8.3934099322E-02
             -2.4602060228E-02  7.5000000000E-01  5.8393409932E-01
              2.1086425113E-01  4.6046352441E-02  7.8865364955E-01
              7.1086425113E-01  4.5395364756E-01 -2.8865364955E-01
             -2.1086425113E-01  5.4604635244E-01 -7.8865364955E-01
              2.8913574887E-01 -4.6046352440E-02  1.2886536496E+00
             -2.1086425113E-01 -4.6046352440E-02 -7.8865364955E-01
              2.8913574887E-01  5.4604635244E-01  1.2886536496E+00
              2.1086425113E-01  4.5395364756E-01  7.8865364955E-01
              7.1086425113E-01  4.6046352441E-02 -2.8865364955E-01
     znucl     21.00000    8.00000   57.00000

================================================================================

- Total cpu        time (s,m,h):      46470.1      774.50     12.908
- Total wall clock time (s,m,h):************************************

- For major independent code sections, cpu and wall times (sec),
- as well as % of the total time and number of calls 

- routine                 cpu     %       wall     %      number of calls 
-                                                          (-1=no count)
- fourwf(pot)        15429.861  33.2*********** 100.0         299880
- projbd             11550.547  24.9***********-200.0         479808
- nonlop(apply)      10974.953  23.6***********-100.0         299880
- nonlop(forces)      2513.568   5.4   1232.502   0.0          46848
- vtowfk(ssdiag)      2108.373   4.5*********** 100.0             -1
- cgwf-O(npw)         1815.457   3.9    924.365   0.0             -1
- fourwf(den)         1403.256   3.0*********** 200.0          46848
- 43   others          648.531   1.4    373.081   0.0

- subtotal           46444.547  99.9*********** 100.0

================================================================================

 Calculation completed.
 Delivered   19 WARNINGs and   0 COMMENTs to log file.
+Overall time at end (sec) : cpu=      46470.1  wall=*************
